
;
; GENERATED BY LigParGen Server
; Jorgensen Lab @ Yale University 
;
;[ atomtypes ]
;  opls_818  H818     1.0080     0.000    A    2.50000E-01   1.25520E-01
;  opls_824  H824     1.0080     0.000    A    2.50000E-01   1.25520E-01
;  opls_805  C805    12.0110     0.000    A    3.50000E-01   2.76144E-01
;  opls_800  O800    15.9990     0.000    A    3.12000E-01   7.11280E-01
;  opls_813  H813     1.0080     0.000    A    2.50000E-01   1.25520E-01
;  opls_802  C802    12.0110     0.000    A    3.50000E-01   2.76144E-01
;  opls_815  H815     1.0080     0.000    A    2.50000E-01   1.25520E-01
;  opls_801  C801    12.0110     0.000    A    3.50000E-01   2.76144E-01
;  opls_822  H822     1.0080     0.000    A    2.50000E-01   1.25520E-01
;  opls_803  C803    12.0110     0.000    A    3.50000E-01   2.76144E-01
;  opls_825  H825     1.0080     0.000    A    2.50000E-01   1.25520E-01
;  opls_826  H826     1.0080     0.000    A    2.50000E-01   1.25520E-01
;  opls_814  H814     1.0080     0.000    A    2.50000E-01   1.25520E-01
;  opls_821  H821     1.0080     0.000    A    2.50000E-01   1.25520E-01
;  opls_820  H820     1.0080     0.000    A    2.50000E-01   1.25520E-01
;  opls_811  H811     1.0080     0.000    A    2.50000E-01   1.25520E-01
;  opls_816  H816     1.0080     0.000    A    2.50000E-01   1.25520E-01
;  opls_806  C806    12.0110     0.000    A    3.50000E-01   2.76144E-01
;  opls_823  H823     1.0080     0.000    A    2.50000E-01   1.25520E-01
;  opls_809  O809    15.9990     0.000    A    3.12000E-01   7.11280E-01
;  opls_819  H819     1.0080     0.000    A    2.50000E-01   1.25520E-01
;  opls_804  C804    12.0110     0.000    A    3.50000E-01   2.76144E-01
;  opls_827  H827     1.0080     0.000    A    0.00000E+00   0.00000E+00
;  opls_808  C808    12.0110     0.000    A    3.50000E-01   2.76144E-01
;  opls_817  H817     1.0080     0.000    A    2.50000E-01   1.25520E-01
;  opls_812  H812     1.0080     0.000    A    2.50000E-01   1.25520E-01
;  opls_810  H810     1.0080     0.000    A    0.00000E+00   0.00000E+00
;  opls_807  C807    12.0110     0.000    A    3.50000E-01   2.76144E-01
[ moleculetype ]
; Name               nrexcl
MOL                   3
[ atoms ]
;   nr       type  resnr residue  atom   cgnr     charge       mass  
     1   opls_800      1    MOL   O00      1    -0.683    15.9990 
     2   opls_801      1    MOL   C01      1     0.145    12.0110 
     3   opls_802      1    MOL   C02      1    -0.12    12.0110 
     4   opls_803      1    MOL   C03      1    -0.12    12.0110 
     5   opls_804      1    MOL   C04      1    -0.12    12.0110 
     6   opls_805      1    MOL   C05      1    -0.12    12.0110 
     7   opls_806      1    MOL   C06      1    -0.12    12.0110 
     8   opls_807      1    MOL   C07      1    -0.12    12.0110 
     9   opls_808      1    MOL   C08      1     0.145    12.0110 
    10   opls_809      1    MOL   O09      1    -0.683    15.9990 
    11   opls_810      1    MOL   H0A      1     0.418     1.0080 
    12   opls_811      1    MOL   H0B      1     0.06     1.0080 
    13   opls_812      1    MOL   H0C      1     0.06     1.0080 
    14   opls_813      1    MOL   H0D      1     0.06     1.0080 
    15   opls_814      1    MOL   H0E      1     0.06     1.0080 
    16   opls_815      1    MOL   H0F      1     0.06     1.0080 
    17   opls_816      1    MOL   H0G      1     0.06     1.0080 
    18   opls_817      1    MOL   H0H      1     0.06     1.0080 
    19   opls_818      1    MOL   H0I      1     0.06     1.0080 
    20   opls_819      1    MOL   H0J      1     0.06     1.0080 
    21   opls_820      1    MOL   H0K      1     0.06     1.0080 
    22   opls_821      1    MOL   H0M      1     0.06     1.0080 
    23   opls_822      1    MOL   H0N      1     0.06     1.0080 
    24   opls_823      1    MOL   H0O      1     0.06     1.0080 
    25   opls_824      1    MOL   H0P      1     0.06     1.0080 
    26   opls_825      1    MOL   H0Q      1     0.06     1.0080 
    27   opls_826      1    MOL   H0R      1     0.06     1.0080 
    28   opls_827      1    MOL   H0S      1     0.418     1.0080 
[ bonds ]
    2     1     1      0.1410 267776.000
    3     2     1      0.1529 224262.400
    4     3     1      0.1529 224262.400
    5     4     1      0.1529 224262.400
    6     5     1      0.1529 224262.400
    7     6     1      0.1529 224262.400
    8     7     1      0.1529 224262.400
    9     8     1      0.1529 224262.400
   10     9     1      0.1410 267776.000
   11     1     1      0.0945 462750.400
   12     2     1      0.1090 284512.000
   13     2     1      0.1090 284512.000
   14     3     1      0.1090 284512.000
   15     3     1      0.1090 284512.000
   16     4     1      0.1090 284512.000
   17     4     1      0.1090 284512.000
   18     5     1      0.1090 284512.000
   19     5     1      0.1090 284512.000
   20     6     1      0.1090 284512.000
   21     6     1      0.1090 284512.000
   22     7     1      0.1090 284512.000
   23     7     1      0.1090 284512.000
   24     8     1      0.1090 284512.000
   25     8     1      0.1090 284512.000
   26     9     1      0.1090 284512.000
   27     9     1      0.1090 284512.000
   28    10     1      0.0945 462750.400

[ angles ]
;  ai    aj    ak funct            c0            c1            c2            c3 
    1     2     3     1    109.500    418.400
    2     3     4     1    112.700    488.273
    3     4     5     1    112.700    488.273
    4     5     6     1    112.700    488.273
    5     6     7     1    112.700    488.273
    6     7     8     1    112.700    488.273
    7     8     9     1    112.700    488.273
    8     9    10     1    109.500    418.400
    2     1    11     1    108.500    460.240
    1     2    12     1    109.500    292.880
    1     2    13     1    109.500    292.880
    2     3    14     1    110.700    313.800
    2     3    15     1    110.700    313.800
    3     4    16     1    110.700    313.800
    3     4    17     1    110.700    313.800
    4     5    18     1    110.700    313.800
    4     5    19     1    110.700    313.800
    5     6    20     1    110.700    313.800
    5     6    21     1    110.700    313.800
    6     7    22     1    110.700    313.800
    6     7    23     1    110.700    313.800
    7     8    24     1    110.700    313.800
    7     8    25     1    110.700    313.800
    8     9    26     1    110.700    313.800
    8     9    27     1    110.700    313.800
    9    10    28     1    108.500    460.240
   10     9    27     1    109.500    292.880
   26     9    27     1    107.800    276.144
    9     8    25     1    110.700    313.800
   20     6    21     1    107.800    276.144
   12     2    13     1    107.800    276.144
    9     8    24     1    110.700    313.800
    6     5    19     1    110.700    313.800
   10     9    26     1    109.500    292.880
    5     4    16     1    110.700    313.800
   16     4    17     1    107.800    276.144
    8     7    23     1    110.700    313.800
   22     7    23     1    107.800    276.144
   14     3    15     1    107.800    276.144
    3     2    12     1    110.700    313.800
    8     7    22     1    110.700    313.800
    3     2    13     1    110.700    313.800
   18     5    19     1    107.800    276.144
   24     8    25     1    107.800    276.144
    4     3    14     1    110.700    313.800
    7     6    21     1    110.700    313.800
    4     3    15     1    110.700    313.800
    7     6    20     1    110.700    313.800
    6     5    18     1    110.700    313.800
    5     4    17     1    110.700    313.800

[ dihedrals ]
; IMPROPER DIHEDRAL ANGLES 
;  ai    aj    ak    al funct            c0            c1            c2            c3            c4            c5

[ dihedrals ]
; PROPER DIHEDRAL ANGLES
;  ai    aj    ak    al funct            c0            c1            c2            c3            c4            c5
    5    4    3    2        3       2.301  -1.464   0.837  -1.674  -0.000   0.000
    6    5    4    3        3       2.301  -1.464   0.837  -1.674  -0.000   0.000
    7    6    5    4        3       2.301  -1.464   0.837  -1.674  -0.000   0.000
    8    7    6    5        3       2.301  -1.464   0.837  -1.674  -0.000   0.000
    9    8    7    6        3       2.301  -1.464   0.837  -1.674  -0.000   0.000
    4    3    2    1        3      -3.247   3.247   0.000  -0.000  -0.000   0.000
   20    6    5    4        3       0.628   1.883   0.000  -2.510  -0.000   0.000
   23    7    8    9        3       0.628   1.883   0.000  -2.510  -0.000   0.000
   17    4    5    6        3       0.628   1.883   0.000  -2.510  -0.000   0.000
   27    9    8    7        3       0.628   1.883   0.000  -2.510  -0.000   0.000
   22    7    8    9        3       0.628   1.883   0.000  -2.510  -0.000   0.000
   19    5    6    7        3       0.628   1.883   0.000  -2.510  -0.000   0.000
   19    5    4    3        3       0.628   1.883   0.000  -2.510  -0.000   0.000
   12    2    3    4        3       0.628   1.883   0.000  -2.510  -0.000   0.000
   23    7    6    5        3       0.628   1.883   0.000  -2.510  -0.000   0.000
   13    2    3    4        3       0.628   1.883   0.000  -2.510  -0.000   0.000
   16    4    3    2        3       0.628   1.883   0.000  -2.510  -0.000   0.000
   18    5    6    7        3       0.628   1.883   0.000  -2.510  -0.000   0.000
   22    7    6    5        3       0.628   1.883   0.000  -2.510  -0.000   0.000
   20    6    7    8        3       0.628   1.883   0.000  -2.510  -0.000   0.000
   24    8    7    6        3       0.628   1.883   0.000  -2.510  -0.000   0.000
   21    6    5    4        3       0.628   1.883   0.000  -2.510  -0.000   0.000
   25    8    7    6        3       0.628   1.883   0.000  -2.510  -0.000   0.000
   21    6    7    8        3       0.628   1.883   0.000  -2.510  -0.000   0.000
   18    5    4    3        3       0.628   1.883   0.000  -2.510  -0.000   0.000
   26    9    8    7        3       0.628   1.883   0.000  -2.510  -0.000   0.000
   17    4    3    2        3       0.628   1.883   0.000  -2.510  -0.000   0.000
   16    4    5    6        3       0.628   1.883   0.000  -2.510  -0.000   0.000
   15    3    4    5        3       0.628   1.883   0.000  -2.510  -0.000   0.000
   14    3    4    5        3       0.628   1.883   0.000  -2.510  -0.000   0.000
   20    6    5   18        3       0.628   1.883   0.000  -2.510  -0.000   0.000
   24    8    7   23        3       0.628   1.883   0.000  -2.510  -0.000   0.000
   25    8    7   22        3       0.628   1.883   0.000  -2.510  -0.000   0.000
   23    7    6   21        3       0.628   1.883   0.000  -2.510  -0.000   0.000
   15    3    2   13        3       0.628   1.883   0.000  -2.510  -0.000   0.000
   16    4    3   14        3       0.628   1.883   0.000  -2.510  -0.000   0.000
   21    6    5   18        3       0.628   1.883   0.000  -2.510  -0.000   0.000
   18    5    4   16        3       0.628   1.883   0.000  -2.510  -0.000   0.000
   16    4    3   15        3       0.628   1.883   0.000  -2.510  -0.000   0.000
   17    4    3   15        3       0.628   1.883   0.000  -2.510  -0.000   0.000
   23    7    6   20        3       0.628   1.883   0.000  -2.510  -0.000   0.000
   26    9    8   24        3       0.628   1.883   0.000  -2.510  -0.000   0.000
   24    8    7   22        3       0.628   1.883   0.000  -2.510  -0.000   0.000
   27    9    8   24        3       0.628   1.883   0.000  -2.510  -0.000   0.000
   14    3    2   13        3       0.628   1.883   0.000  -2.510  -0.000   0.000
   22    7    6   20        3       0.628   1.883   0.000  -2.510  -0.000   0.000
   14    3    2   12        3       0.628   1.883   0.000  -2.510  -0.000   0.000
   18    5    4   17        3       0.628   1.883   0.000  -2.510  -0.000   0.000
   19    5    4   16        3       0.628   1.883   0.000  -2.510  -0.000   0.000
   15    3    2   12        3       0.628   1.883   0.000  -2.510  -0.000   0.000
   26    9    8   25        3       0.628   1.883   0.000  -2.510  -0.000   0.000
   27    9    8   25        3       0.628   1.883   0.000  -2.510  -0.000   0.000
   17    4    3   14        3       0.628   1.883   0.000  -2.510  -0.000   0.000
   21    6    5   19        3       0.628   1.883   0.000  -2.510  -0.000   0.000
   25    8    7   23        3       0.628   1.883   0.000  -2.510  -0.000   0.000
   19    5    4   17        3       0.628   1.883   0.000  -2.510  -0.000   0.000
   20    6    5   19        3       0.628   1.883   0.000  -2.510  -0.000   0.000
   22    7    6   21        3       0.628   1.883   0.000  -2.510  -0.000   0.000
   15    3    2    1        3       0.979   2.937   0.000  -3.916  -0.000   0.000
   24    8    9   10        3       0.979   2.937   0.000  -3.916  -0.000   0.000
   25    8    9   10        3       0.979   2.937   0.000  -3.916  -0.000   0.000
   14    3    2    1        3       0.979   2.937   0.000  -3.916  -0.000   0.000
   12    2    1   11        3       0.736   2.209   0.000  -2.946  -0.000   0.000
   13    2    1   11        3       0.736   2.209   0.000  -2.946  -0.000   0.000
   28   10    9    8        3      -0.444   3.833   0.728  -4.117  -0.000   0.000
   11    1    2    3        3      -0.444   3.833   0.728  -4.117  -0.000   0.000
   28   10    9   26        3       0.736   2.209   0.000  -2.946  -0.000   0.000
   28   10    9   27        3       0.736   2.209   0.000  -2.946  -0.000   0.000
   10    9    8    7        3      -3.247   3.247   0.000  -0.000  -0.000   0.000

[ pairs ]
     1     4    1
     2     5    1
     3     6    1
     4     7    1
     5     8    1
     3    11    1
     6     9    1
     1    14    1
     4    12    1
     1    15    1
     7    10    1
     4    13    1
     2    16    1
     5    14    1
     2    17    1
     5    15    1
     3    18    1
     6    16    1
     3    19    1
    11    12    1
     6    17    1
    11    13    1
     4    20    1
     7    18    1
     4    21    1
    12    14    1
     7    19    1
    13    14    1
    12    15    1
     5    22    1
    13    15    1
     8    20    1
     5    23    1
     8    21    1
    14    16    1
     6    24    1
    15    16    1
    14    17    1
     9    22    1
     6    25    1
    15    17    1
     9    23    1
     7    26    1
    16    18    1
    10    24    1
     7    27    1
    17    18    1
    16    19    1
    10    25    1
    17    19    1
     8    28    1
    18    20    1
    19    20    1
    18    21    1
    19    21    1
    20    22    1
    21    22    1
    20    23    1
    21    23    1
    22    24    1
    23    24    1
    22    25    1
    23    25    1
    24    26    1
    25    26    1
    24    27    1
    25    27    1
    26    28    1
    27    28    1

