
;
; GENERATED BY LigParGen Server
; Jorgensen Lab @ Yale University 
;
;[ atomtypes ]
;  opls_818  H818     1.0080     0.000    A    2.50000E-01   1.25520E-01
;  opls_824  H824     1.0080     0.000    A    2.50000E-01   1.25520E-01
;  opls_805  C805    12.0110     0.000    A    3.50000E-01   2.76144E-01
;  opls_812  H812     1.0080     0.000    A    0.00000E+00   0.00000E+00
;  opls_800  O800    15.9990     0.000    A    3.12000E-01   7.11280E-01
;  opls_828  H828     1.0080     0.000    A    2.50000E-01   1.25520E-01
;  opls_810  C810    12.0110     0.000    A    3.50000E-01   2.76144E-01
;  opls_813  H813     1.0080     0.000    A    2.50000E-01   1.25520E-01
;  opls_832  H832     1.0080     0.000    A    2.50000E-01   1.25520E-01
;  opls_802  C802    12.0110     0.000    A    3.50000E-01   2.76144E-01
;  opls_815  H815     1.0080     0.000    A    2.50000E-01   1.25520E-01
;  opls_809  C809    12.0110     0.000    A    3.50000E-01   2.76144E-01
;  opls_830  H830     1.0080     0.000    A    2.50000E-01   1.25520E-01
;  opls_822  H822     1.0080     0.000    A    2.50000E-01   1.25520E-01
;  opls_803  C803    12.0110     0.000    A    3.50000E-01   2.76144E-01
;  opls_825  H825     1.0080     0.000    A    2.50000E-01   1.25520E-01
;  opls_814  H814     1.0080     0.000    A    2.50000E-01   1.25520E-01
;  opls_821  H821     1.0080     0.000    A    2.50000E-01   1.25520E-01
;  opls_820  H820     1.0080     0.000    A    2.50000E-01   1.25520E-01
;  opls_829  H829     1.0080     0.000    A    2.50000E-01   1.25520E-01
;  opls_831  H831     1.0080     0.000    A    2.50000E-01   1.25520E-01
;  opls_816  H816     1.0080     0.000    A    2.50000E-01   1.25520E-01
;  opls_806  C806    12.0110     0.000    A    3.50000E-01   2.76144E-01
;  opls_823  H823     1.0080     0.000    A    2.50000E-01   1.25520E-01
;  opls_826  H826     1.0080     0.000    A    2.50000E-01   1.25520E-01
;  opls_819  H819     1.0080     0.000    A    2.50000E-01   1.25520E-01
;  opls_804  C804    12.0110     0.000    A    3.50000E-01   2.76144E-01
;  opls_827  H827     1.0080     0.000    A    2.50000E-01   1.25520E-01
;  opls_801  C801    12.0110     0.000    A    3.50000E-01   2.76144E-01
;  opls_808  C808    12.0110     0.000    A    3.50000E-01   2.76144E-01
;  opls_817  H817     1.0080     0.000    A    2.50000E-01   1.25520E-01
;  opls_833  H833     1.0080     0.000    A    0.00000E+00   0.00000E+00
;  opls_811  O811    15.9990     0.000    A    3.12000E-01   7.11280E-01
;  opls_807  C807    12.0110     0.000    A    3.50000E-01   2.76144E-01
[ moleculetype ]
; Name               nrexcl
MOL                   3
[ atoms ]
;   nr       type  resnr residue  atom   cgnr     charge       mass  
     1   opls_800      1    MOL   O00      1    -0.683    15.9990 
     2   opls_801      1    MOL   C01      1     0.145    12.0110 
     3   opls_802      1    MOL   C02      1    -0.12    12.0110 
     4   opls_803      1    MOL   C03      1    -0.12    12.0110 
     5   opls_804      1    MOL   C04      1    -0.12    12.0110 
     6   opls_805      1    MOL   C05      1    -0.12    12.0110 
     7   opls_806      1    MOL   C06      1    -0.12    12.0110 
     8   opls_807      1    MOL   C07      1    -0.12    12.0110 
     9   opls_808      1    MOL   C08      1    -0.12    12.0110 
    10   opls_809      1    MOL   C09      1    -0.12    12.0110 
    11   opls_810      1    MOL   C0A      1     0.145    12.0110 
    12   opls_811      1    MOL   O0B      1    -0.683    15.9990 
    13   opls_812      1    MOL   H0C      1     0.418     1.0080 
    14   opls_813      1    MOL   H0D      1     0.06     1.0080 
    15   opls_814      1    MOL   H0E      1     0.06     1.0080 
    16   opls_815      1    MOL   H0F      1     0.06     1.0080 
    17   opls_816      1    MOL   H0G      1     0.06     1.0080 
    18   opls_817      1    MOL   H0H      1     0.06     1.0080 
    19   opls_818      1    MOL   H0I      1     0.06     1.0080 
    20   opls_819      1    MOL   H0J      1     0.06     1.0080 
    21   opls_820      1    MOL   H0K      1     0.06     1.0080 
    22   opls_821      1    MOL   H0M      1     0.06     1.0080 
    23   opls_822      1    MOL   H0N      1     0.06     1.0080 
    24   opls_823      1    MOL   H0O      1     0.06     1.0080 
    25   opls_824      1    MOL   H0P      1     0.06     1.0080 
    26   opls_825      1    MOL   H0Q      1     0.06     1.0080 
    27   opls_826      1    MOL   H0R      1     0.06     1.0080 
    28   opls_827      1    MOL   H0S      1     0.06     1.0080 
    29   opls_828      1    MOL   H0T      1     0.06     1.0080 
    30   opls_829      1    MOL   H0U      1     0.06     1.0080 
    31   opls_830      1    MOL   H0V      1     0.06     1.0080 
    32   opls_831      1    MOL   H0W      1     0.06     1.0080 
    33   opls_832      1    MOL   H0X      2     0.06     1.0080 
    34   opls_833      1    MOL   H0Y      2     0.418     1.0080 
[ bonds ]
    2     1     1      0.1410 267776.000
    3     2     1      0.1529 224262.400
    4     3     1      0.1529 224262.400
    5     4     1      0.1529 224262.400
    6     5     1      0.1529 224262.400
    7     6     1      0.1529 224262.400
    8     7     1      0.1529 224262.400
    9     8     1      0.1529 224262.400
   10     9     1      0.1529 224262.400
   11    10     1      0.1529 224262.400
   12    11     1      0.1410 267776.000
   13     1     1      0.0945 462750.400
   14     2     1      0.1090 284512.000
   15     2     1      0.1090 284512.000
   16     3     1      0.1090 284512.000
   17     3     1      0.1090 284512.000
   18     4     1      0.1090 284512.000
   19     4     1      0.1090 284512.000
   20     5     1      0.1090 284512.000
   21     5     1      0.1090 284512.000
   22     6     1      0.1090 284512.000
   23     6     1      0.1090 284512.000
   24     7     1      0.1090 284512.000
   25     7     1      0.1090 284512.000
   26     8     1      0.1090 284512.000
   27     8     1      0.1090 284512.000
   28     9     1      0.1090 284512.000
   29     9     1      0.1090 284512.000
   30    10     1      0.1090 284512.000
   31    10     1      0.1090 284512.000
   32    11     1      0.1090 284512.000
   33    11     1      0.1090 284512.000
   34    12     1      0.0945 462750.400

[ angles ]
;  ai    aj    ak funct            c0            c1            c2            c3 
    1     2     3     1    109.500    418.400
    2     3     4     1    112.700    488.273
    3     4     5     1    112.700    488.273
    4     5     6     1    112.700    488.273
    5     6     7     1    112.700    488.273
    6     7     8     1    112.700    488.273
    7     8     9     1    112.700    488.273
    8     9    10     1    112.700    488.273
    9    10    11     1    112.700    488.273
   10    11    12     1    109.500    418.400
    2     1    13     1    108.500    460.240
    1     2    14     1    109.500    292.880
    1     2    15     1    109.500    292.880
    2     3    16     1    110.700    313.800
    2     3    17     1    110.700    313.800
    3     4    18     1    110.700    313.800
    3     4    19     1    110.700    313.800
    4     5    20     1    110.700    313.800
    4     5    21     1    110.700    313.800
    5     6    22     1    110.700    313.800
    5     6    23     1    110.700    313.800
    6     7    24     1    110.700    313.800
    6     7    25     1    110.700    313.800
    7     8    26     1    110.700    313.800
    7     8    27     1    110.700    313.800
    8     9    28     1    110.700    313.800
    8     9    29     1    110.700    313.800
    9    10    30     1    110.700    313.800
    9    10    31     1    110.700    313.800
   10    11    32     1    110.700    313.800
   10    11    33     1    110.700    313.800
   11    12    34     1    108.500    460.240
   10     9    29     1    110.700    313.800
   16     3    17     1    107.800    276.144
    3     2    14     1    110.700    313.800
    3     2    15     1    110.700    313.800
   10     9    28     1    110.700    313.800
   26     8    27     1    107.800    276.144
    7     6    22     1    110.700    313.800
   24     7    25     1    107.800    276.144
    7     6    23     1    110.700    313.800
   12    11    32     1    109.500    292.880
   28     9    29     1    107.800    276.144
   32    11    33     1    107.800    276.144
   30    10    31     1    107.800    276.144
    8     7    25     1    110.700    313.800
   14     2    15     1    107.800    276.144
    6     5    20     1    110.700    313.800
    5     4    19     1    110.700    313.800
   11    10    31     1    110.700    313.800
    6     5    21     1    110.700    313.800
    9     8    26     1    110.700    313.800
    4     3    16     1    110.700    313.800
    4     3    17     1    110.700    313.800
    8     7    24     1    110.700    313.800
    5     4    18     1    110.700    313.800
   22     6    23     1    107.800    276.144
   18     4    19     1    107.800    276.144
   12    11    33     1    109.500    292.880
    9     8    27     1    110.700    313.800
   11    10    30     1    110.700    313.800
   20     5    21     1    107.800    276.144

[ dihedrals ]
; IMPROPER DIHEDRAL ANGLES 
;  ai    aj    ak    al funct            c0            c1            c2            c3            c4            c5

[ dihedrals ]
; PROPER DIHEDRAL ANGLES
;  ai    aj    ak    al funct            c0            c1            c2            c3            c4            c5
    5    4    3    2        3       2.301  -1.464   0.837  -1.674  -0.000   0.000
    6    5    4    3        3       2.301  -1.464   0.837  -1.674  -0.000   0.000
    7    6    5    4        3       2.301  -1.464   0.837  -1.674  -0.000   0.000
    8    7    6    5        3       2.301  -1.464   0.837  -1.674  -0.000   0.000
    9    8    7    6        3       2.301  -1.464   0.837  -1.674  -0.000   0.000
   10    9    8    7        3       2.301  -1.464   0.837  -1.674  -0.000   0.000
   11   10    9    8        3       2.301  -1.464   0.837  -1.674  -0.000   0.000
    4    3    2    1        3      -3.247   3.247   0.000  -0.000  -0.000   0.000
   26    8    7    6        3       0.628   1.883   0.000  -2.510  -0.000   0.000
   26    8    9   10        3       0.628   1.883   0.000  -2.510  -0.000   0.000
   29    9    8    7        3       0.628   1.883   0.000  -2.510  -0.000   0.000
   18    4    5    6        3       0.628   1.883   0.000  -2.510  -0.000   0.000
   19    4    3    2        3       0.628   1.883   0.000  -2.510  -0.000   0.000
   23    6    5    4        3       0.628   1.883   0.000  -2.510  -0.000   0.000
   22    6    5    4        3       0.628   1.883   0.000  -2.510  -0.000   0.000
   33   11   10    9        3       0.628   1.883   0.000  -2.510  -0.000   0.000
   21    5    6    7        3       0.628   1.883   0.000  -2.510  -0.000   0.000
   31   10    9    8        3       0.628   1.883   0.000  -2.510  -0.000   0.000
   24    7    6    5        3       0.628   1.883   0.000  -2.510  -0.000   0.000
   25    7    6    5        3       0.628   1.883   0.000  -2.510  -0.000   0.000
   17    3    4    5        3       0.628   1.883   0.000  -2.510  -0.000   0.000
   28    9    8    7        3       0.628   1.883   0.000  -2.510  -0.000   0.000
   18    4    3    2        3       0.628   1.883   0.000  -2.510  -0.000   0.000
   15    2    3    4        3       0.628   1.883   0.000  -2.510  -0.000   0.000
   20    5    6    7        3       0.628   1.883   0.000  -2.510  -0.000   0.000
   32   11   10    9        3       0.628   1.883   0.000  -2.510  -0.000   0.000
   24    7    8    9        3       0.628   1.883   0.000  -2.510  -0.000   0.000
   27    8    7    6        3       0.628   1.883   0.000  -2.510  -0.000   0.000
   22    6    7    8        3       0.628   1.883   0.000  -2.510  -0.000   0.000
   19    4    5    6        3       0.628   1.883   0.000  -2.510  -0.000   0.000
   27    8    9   10        3       0.628   1.883   0.000  -2.510  -0.000   0.000
   20    5    4    3        3       0.628   1.883   0.000  -2.510  -0.000   0.000
   14    2    3    4        3       0.628   1.883   0.000  -2.510  -0.000   0.000
   29    9   10   11        3       0.628   1.883   0.000  -2.510  -0.000   0.000
   23    6    7    8        3       0.628   1.883   0.000  -2.510  -0.000   0.000
   16    3    4    5        3       0.628   1.883   0.000  -2.510  -0.000   0.000
   28    9   10   11        3       0.628   1.883   0.000  -2.510  -0.000   0.000
   25    7    8    9        3       0.628   1.883   0.000  -2.510  -0.000   0.000
   21    5    4    3        3       0.628   1.883   0.000  -2.510  -0.000   0.000
   30   10    9    8        3       0.628   1.883   0.000  -2.510  -0.000   0.000
   29    9    8   27        3       0.628   1.883   0.000  -2.510  -0.000   0.000
   18    4    3   17        3       0.628   1.883   0.000  -2.510  -0.000   0.000
   19    4    3   16        3       0.628   1.883   0.000  -2.510  -0.000   0.000
   31   10    9   29        3       0.628   1.883   0.000  -2.510  -0.000   0.000
   18    4    3   16        3       0.628   1.883   0.000  -2.510  -0.000   0.000
   17    3    2   14        3       0.628   1.883   0.000  -2.510  -0.000   0.000
   21    5    4   19        3       0.628   1.883   0.000  -2.510  -0.000   0.000
   24    7    6   22        3       0.628   1.883   0.000  -2.510  -0.000   0.000
   26    8    7   24        3       0.628   1.883   0.000  -2.510  -0.000   0.000
   19    4    3   17        3       0.628   1.883   0.000  -2.510  -0.000   0.000
   16    3    2   15        3       0.628   1.883   0.000  -2.510  -0.000   0.000
   33   11   10   31        3       0.628   1.883   0.000  -2.510  -0.000   0.000
   28    9    8   26        3       0.628   1.883   0.000  -2.510  -0.000   0.000
   22    6    5   20        3       0.628   1.883   0.000  -2.510  -0.000   0.000
   27    8    7   25        3       0.628   1.883   0.000  -2.510  -0.000   0.000
   20    5    4   19        3       0.628   1.883   0.000  -2.510  -0.000   0.000
   30   10    9   29        3       0.628   1.883   0.000  -2.510  -0.000   0.000
   32   11   10   30        3       0.628   1.883   0.000  -2.510  -0.000   0.000
   16    3    2   14        3       0.628   1.883   0.000  -2.510  -0.000   0.000
   24    7    6   23        3       0.628   1.883   0.000  -2.510  -0.000   0.000
   25    7    6   22        3       0.628   1.883   0.000  -2.510  -0.000   0.000
   25    7    6   23        3       0.628   1.883   0.000  -2.510  -0.000   0.000
   31   10    9   28        3       0.628   1.883   0.000  -2.510  -0.000   0.000
   26    8    7   25        3       0.628   1.883   0.000  -2.510  -0.000   0.000
   30   10    9   28        3       0.628   1.883   0.000  -2.510  -0.000   0.000
   28    9    8   27        3       0.628   1.883   0.000  -2.510  -0.000   0.000
   27    8    7   24        3       0.628   1.883   0.000  -2.510  -0.000   0.000
   33   11   10   30        3       0.628   1.883   0.000  -2.510  -0.000   0.000
   17    3    2   15        3       0.628   1.883   0.000  -2.510  -0.000   0.000
   29    9    8   26        3       0.628   1.883   0.000  -2.510  -0.000   0.000
   20    5    4   18        3       0.628   1.883   0.000  -2.510  -0.000   0.000
   23    6    5   21        3       0.628   1.883   0.000  -2.510  -0.000   0.000
   22    6    5   21        3       0.628   1.883   0.000  -2.510  -0.000   0.000
   32   11   10   31        3       0.628   1.883   0.000  -2.510  -0.000   0.000
   21    5    4   18        3       0.628   1.883   0.000  -2.510  -0.000   0.000
   23    6    5   20        3       0.628   1.883   0.000  -2.510  -0.000   0.000
   17    3    2    1        3       0.979   2.937   0.000  -3.916  -0.000   0.000
   31   10   11   12        3       0.979   2.937   0.000  -3.916  -0.000   0.000
   16    3    2    1        3       0.979   2.937   0.000  -3.916  -0.000   0.000
   30   10   11   12        3       0.979   2.937   0.000  -3.916  -0.000   0.000
   14    2    1   13        3       0.736   2.209   0.000  -2.946  -0.000   0.000
   15    2    1   13        3       0.736   2.209   0.000  -2.946  -0.000   0.000
   34   12   11   10        3      -0.444   3.833   0.728  -4.117  -0.000   0.000
   13    1    2    3        3      -0.444   3.833   0.728  -4.117  -0.000   0.000
   34   12   11   32        3       0.736   2.209   0.000  -2.946  -0.000   0.000
   34   12   11   33        3       0.736   2.209   0.000  -2.946  -0.000   0.000
   12   11   10    9        3      -3.247   3.247   0.000  -0.000  -0.000   0.000

[ pairs ]
     1     4    1
     2     5    1
     3     6    1
     4     7    1
     5     8    1
     6     9    1
     3    13    1
     7    10    1
     1    16    1
     4    14    1
     1    17    1
     8    11    1
     4    15    1
     2    18    1
     9    12    1
     5    16    1
     2    19    1
     5    17    1
     3    20    1
     6    18    1
     3    21    1
     6    19    1
     4    22    1
    13    14    1
     7    20    1
     4    23    1
    13    15    1
     7    21    1
     5    24    1
    14    16    1
     8    22    1
     5    25    1
    15    16    1
    14    17    1
     8    23    1
    15    17    1
     6    26    1
     9    24    1
     6    27    1
    16    18    1
     9    25    1
    17    18    1
    16    19    1
     7    28    1
    17    19    1
    10    26    1
     7    29    1
    10    27    1
    18    20    1
     8    30    1
    19    20    1
    18    21    1
    11    28    1
     8    31    1
    19    21    1
    11    29    1
     9    32    1
    20    22    1
    12    30    1
     9    33    1
    21    22    1
    20    23    1
    12    31    1
    21    23    1
    10    34    1
    22    24    1
    23    24    1
    22    25    1
    23    25    1
    24    26    1
    25    26    1
    24    27    1
    25    27    1
    26    28    1
    27    28    1
    26    29    1
    27    29    1
    28    30    1
    29    30    1
    28    31    1
    29    31    1
    30    32    1
    31    32    1
    30    33    1
    31    33    1
    32    34    1
    33    34    1

