
;
; GENERATED BY LigParGen Server
; Jorgensen Lab @ Yale University 
;
;[ atomtypes ]
;  opls_807  O807    15.9990     0.000    A    2.96000E-01   8.78640E-01
;  opls_810  H810     1.0080     0.000    A    2.50000E-01   1.25520E-01
;  opls_805  C805    12.0110     0.000    A    3.55000E-01   2.92880E-01
;  opls_818  H818     1.0080     0.000    A    2.50000E-01   1.25520E-01
;  opls_800  C800    12.0110     0.000    A    3.50000E-01   2.76144E-01
;  opls_801  C801    12.0110     0.000    A    3.50000E-01   2.76144E-01
;  opls_814  H814     1.0080     0.000    A    2.50000E-01   1.25520E-01
;  opls_808  H808     1.0080     0.000    A    2.50000E-01   1.25520E-01
;  opls_803  C803    12.0110     0.000    A    3.50000E-01   2.76144E-01
;  opls_802  C802    12.0110     0.000    A    3.50000E-01   2.76144E-01
;  opls_812  H812     1.0080     0.000    A    2.50000E-01   1.25520E-01
;  opls_809  H809     1.0080     0.000    A    2.50000E-01   1.25520E-01
;  opls_817  H817     1.0080     0.000    A    2.50000E-01   1.25520E-01
;  opls_806  O806    15.9990     0.000    A    3.12000E-01   7.11280E-01
;  opls_816  H816     1.0080     0.000    A    2.50000E-01   1.25520E-01
;  opls_813  H813     1.0080     0.000    A    2.50000E-01   1.25520E-01
;  opls_819  H819     1.0080     0.000    A    0.00000E+00   0.00000E+00
;  opls_811  H811     1.0080     0.000    A    2.50000E-01   1.25520E-01
;  opls_804  C804    12.0110     0.000    A    3.50000E-01   2.76144E-01
;  opls_815  H815     1.0080     0.000    A    2.50000E-01   1.25520E-01
[ moleculetype ]
; Name               nrexcl
MOL                   3
[ atoms ]
;   nr       type  resnr residue  atom   cgnr     charge       mass  
     1   opls_800      1    MOL   C00      1    -0.18    12.0110 
     2   opls_801      1    MOL   C01      1    -0.12    12.0110 
     3   opls_802      1    MOL   C02      1    -0.12    12.0110 
     4   opls_803      1    MOL   C03      1    -0.12    12.0110 
     5   opls_804      1    MOL   C04      1    -0.12    12.0110 
     6   opls_805      1    MOL   C05      1     0.52    12.0110 
     7   opls_806      1    MOL   O06      1    -0.53    15.9990 
     8   opls_807      1    MOL   O07      1    -0.44    15.9990 
     9   opls_808      1    MOL   H08      1     0.06     1.0080 
    10   opls_809      1    MOL   H09      1     0.06     1.0080 
    11   opls_810      1    MOL   H0A      1     0.06     1.0080 
    12   opls_811      1    MOL   H0B      1     0.06     1.0080 
    13   opls_812      1    MOL   H0C      1     0.06     1.0080 
    14   opls_813      1    MOL   H0D      1     0.06     1.0080 
    15   opls_814      1    MOL   H0E      1     0.06     1.0080 
    16   opls_815      1    MOL   H0F      1     0.06     1.0080 
    17   opls_816      1    MOL   H0G      1     0.06     1.0080 
    18   opls_817      1    MOL   H0H      1     0.06     1.0080 
    19   opls_818      1    MOL   H0I      1     0.06     1.0080 
    20   opls_819      1    MOL   H0J      1     0.45     1.0080 
[ bonds ]
    2     1     1      0.1529 224262.400
    3     2     1      0.1529 224262.400
    4     3     1      0.1529 224262.400
    5     4     1      0.1529 224262.400
    6     5     1      0.1522 265265.600
    7     6     1      0.1364 376560.000
    8     6     1      0.1229 476976.000
    9     1     1      0.1090 284512.000
   10     1     1      0.1090 284512.000
   11     1     1      0.1090 284512.000
   12     2     1      0.1090 284512.000
   13     2     1      0.1090 284512.000
   14     3     1      0.1090 284512.000
   15     3     1      0.1090 284512.000
   16     4     1      0.1090 284512.000
   17     4     1      0.1090 284512.000
   18     5     1      0.1090 284512.000
   19     5     1      0.1090 284512.000
   20     7     1      0.0945 462750.400

[ angles ]
;  ai    aj    ak funct            c0            c1            c2            c3 
    1     2     3     1    112.700    488.273
    2     3     4     1    112.700    488.273
    3     4     5     1    112.700    488.273
    4     5     6     1    111.100    527.184
    5     6     7     1    108.000    585.760
    5     6     8     1    120.400    669.440
    2     1     9     1    110.700    313.800
    2     1    10     1    110.700    313.800
    2     1    11     1    110.700    313.800
    1     2    12     1    110.700    313.800
    1     2    13     1    110.700    313.800
    2     3    14     1    110.700    313.800
    2     3    15     1    110.700    313.800
    3     4    16     1    110.700    313.800
    3     4    17     1    110.700    313.800
    4     5    18     1    110.700    313.800
    4     5    19     1    110.700    313.800
    6     7    20     1    113.000    292.880
   12     2    13     1    107.800    276.144
    6     5    19     1    109.500    292.880
    5     4    16     1    110.700    313.800
   18     5    19     1    107.800    276.144
   16     4    17     1    107.800    276.144
   14     3    15     1    107.800    276.144
    7     6     8     1    121.000    669.440
    3     2    12     1    110.700    313.800
   10     1    11     1    107.800    276.144
    3     2    13     1    110.700    313.800
    9     1    10     1    107.800    276.144
    9     1    11     1    107.800    276.144
    4     3    14     1    110.700    313.800
    4     3    15     1    110.700    313.800
    6     5    18     1    109.500    292.880
    5     4    17     1    110.700    313.800

[ dihedral_restraints ]
20 7 6 8 1 40 0 100


[ dihedrals ]
; IMPROPER DIHEDRAL ANGLES 
;  ai    aj    ak    al funct            c0            c1            c2            c3            c4            c5
     8     6     5     7    4        180.000     43.932     2  

[ dihedrals ]
; PROPER DIHEDRAL ANGLES
;  ai    aj    ak    al funct            c0            c1            c2            c3            c4            c5
    6    5    4    3        3      -4.960   6.286   1.310  -2.636  -0.000   0.000
    4    3    2    1        3       2.301  -1.464   0.837  -1.674  -0.000   0.000
    5    4    3    2        3       2.301  -1.464   0.837  -1.674  -0.000   0.000
   18    5    6    8        3       0.000   0.000   0.000  -0.000  -0.000   0.000
   19    5    6    8        3       0.000   0.000   0.000  -0.000  -0.000   0.000
   19    5    6    7        3       0.000   0.000   0.000  -0.000  -0.000   0.000
   18    5    6    7        3       0.000   0.000   0.000  -0.000  -0.000   0.000
   17    4    5    6        3      -0.209  -0.628   0.000   0.837  -0.000   0.000
   16    4    5    6        3      -0.209  -0.628   0.000   0.837  -0.000   0.000
   18    5    4    3        3       0.628   1.883   0.000  -2.510  -0.000   0.000
   14    3    2    1        3       0.628   1.883   0.000  -2.510  -0.000   0.000
   10    1    2    3        3       0.628   1.883   0.000  -2.510  -0.000   0.000
   13    2    3    4        3       0.628   1.883   0.000  -2.510  -0.000   0.000
   16    4    3    2        3       0.628   1.883   0.000  -2.510  -0.000   0.000
   12    2    3    4        3       0.628   1.883   0.000  -2.510  -0.000   0.000
    9    1    2    3        3       0.628   1.883   0.000  -2.510  -0.000   0.000
   11    1    2    3        3       0.628   1.883   0.000  -2.510  -0.000   0.000
   19    5    4    3        3       0.628   1.883   0.000  -2.510  -0.000   0.000
   15    3    2    1        3       0.628   1.883   0.000  -2.510  -0.000   0.000
   15    3    4    5        3       0.628   1.883   0.000  -2.510  -0.000   0.000
   14    3    4    5        3       0.628   1.883   0.000  -2.510  -0.000   0.000
   17    4    3    2        3       0.628   1.883   0.000  -2.510  -0.000   0.000
   13    2    1   10        3       0.628   1.883   0.000  -2.510  -0.000   0.000
   17    4    3   14        3       0.628   1.883   0.000  -2.510  -0.000   0.000
   12    2    1   10        3       0.628   1.883   0.000  -2.510  -0.000   0.000
   13    2    1    9        3       0.628   1.883   0.000  -2.510  -0.000   0.000
   16    4    3   15        3       0.628   1.883   0.000  -2.510  -0.000   0.000
   18    5    4   16        3       0.628   1.883   0.000  -2.510  -0.000   0.000
   18    5    4   17        3       0.628   1.883   0.000  -2.510  -0.000   0.000
   15    3    2   13        3       0.628   1.883   0.000  -2.510  -0.000   0.000
   13    2    1   11        3       0.628   1.883   0.000  -2.510  -0.000   0.000
   19    5    4   17        3       0.628   1.883   0.000  -2.510  -0.000   0.000
   14    3    2   13        3       0.628   1.883   0.000  -2.510  -0.000   0.000
   16    4    3   14        3       0.628   1.883   0.000  -2.510  -0.000   0.000
   17    4    3   15        3       0.628   1.883   0.000  -2.510  -0.000   0.000
   19    5    4   16        3       0.628   1.883   0.000  -2.510  -0.000   0.000
   14    3    2   12        3       0.628   1.883   0.000  -2.510  -0.000   0.000
   12    2    1    9        3       0.628   1.883   0.000  -2.510  -0.000   0.000
   15    3    2   12        3       0.628   1.883   0.000  -2.510  -0.000   0.000
   12    2    1   11        3       0.628   1.883   0.000  -2.510  -0.000   0.000
   20    7    6    5        3      26.150  -3.138  -23.012  -0.000  -0.000   0.000
   20    7    6    8        3      23.012   0.000  -23.012  -0.000  -0.000   0.000
    8    6    5    4        3       0.000   0.000   0.000  -0.000  -0.000   0.000
    7    6    5    4        3       5.318   0.732  -2.284  -3.766  -0.000   0.000

[ pairs ]
     1     4    1
     2     5    1
     3     6    1
     4     7    1
     4     8    1
     3     9    1
     3    10    1
     3    11    1
     1    14    1
     4    12    1
     1    15    1
     4    13    1
     2    16    1
     5    14    1
     2    17    1
     5    15    1
     9    12    1
     3    18    1
    10    12    1
     9    13    1
     6    16    1
     3    19    1
    11    12    1
    10    13    1
     6    17    1
    11    13    1
     7    18    1
     5    20    1
    12    14    1
     8    18    1
     7    19    1
    13    14    1
    12    15    1
     8    19    1
    13    15    1
     8    20    1
    14    16    1
    15    16    1
    14    17    1
    15    17    1
    16    18    1
    17    18    1
    16    19    1
    17    19    1

