; soln.top
[ defaults ]
; nbfunc comb-rule gen-pairs fudgeLJ fudgeQQ
1 2 yes 0.5 0.8333

[ atomtypes ]
;name bond_type mass charge ptype sigma epsilon Amb
  opls_810  H810     1.0080     0.000    A    2.50000E-01   1.25520E-01
  opls_802  C802    12.0110     0.000    A    3.50000E-01   2.76144E-01
  opls_808  H808     1.0080     0.000    A    2.50000E-01   1.25520E-01
  opls_800  C800    12.0110     0.000    A    3.50000E-01   2.76144E-01
  opls_801  C801    12.0110     0.000    A    3.50000E-01   2.76144E-01
  opls_807  H807     1.0080     0.000    A    2.50000E-01   1.25520E-01
  opls_804  H804     1.0080     0.000    A    2.50000E-01   1.25520E-01
  opls_803  C803    12.0110     0.000    A    3.50000E-01   2.76144E-01
  opls_812  H812     1.0080     0.000    A    2.50000E-01   1.25520E-01
  opls_809  H809     1.0080     0.000    A    2.50000E-01   1.25520E-01
  opls_805  H805     1.0080     0.000    A    2.50000E-01   1.25520E-01
  opls_806  H806     1.0080     0.000    A    2.50000E-01   1.25520E-01
  opls_813  H813     1.0080     0.000    A    2.50000E-01   1.25520E-01
  opls_811  H811     1.0080     0.000    A    2.50000E-01   1.25520E-01
HW 1 1.008 0.00000 A 0.00000e+00 0.00000e+00
OW 8 16.00 0.00000 A 3.15061e-01 6.36386e-01
; Include topology
#include "opls.itp"
#include "amber99sb.ff/tip3p.itp"

[ system ]
 in water

[ molecules ]
; Compound nmols
MOL 1
SOL 3000
