integrator               = sd
tinit                    = 0
dt                       = 0.002
nsteps                   = 2500000 ; 5000 ps


comm-mode                = Linear
emtol                    = 100
emstep                   = 0.01
niter                    = 20
fcstep                   = 0
nstcgsteep               = 1000
nbfgscorr                = 10

nstxout                  = 0
nstvout                  = 0
nstfout                  = 0
nstlog                   = 5000
nstenergy                = 500
nstxout-compressed       = 5000 ; 10 ps
compressed-x-precision   = 1000

nstlist                  = 10
pbc                      = xyz
rlist                    = 2
verlet-buffer-tolerance  = -1 
coulombtype              = pme
rcoulomb-switch          = 0
rcoulomb                 = 1.2
vdwtype                  = Cut-off
vdw_modifier             = Potential-switch
rvdw-switch              = 1.0
rvdw                     = 1.2
DispCorr                 = No
fourierspacing           = 0.10
fourier_nx               = 48
fourier_ny               = 48
fourier_nz               = 48
pme_order                = 6 
ewald_rtol               = 1e-06
ewald_geometry           = 3d
epsilon_surface          = 0

Tcoupl                   = no
tc-grps                  = System
tau_t                    = 2.0
ref_t                    = 300 
Pcoupl                   = no
Pcoupltype               = isotropic
tau_p                    = 10
compressibility          = 4.5e-5
ref_p                    = 1.01325

gen_vel                  = yes
ld_seed = -1
constraints              = all-bonds
constraint-algorithm     = Lincs
continuation      = no
Shake-SOR                = no
shake-tol                = 1e-04
lincs-order              = 4
lincs-warnangle          = 30
morse                    = no

; kaji bar
free_energy              = yes
couple_moltype           = MOL
sc_power                 = 1
sc_sigma                 = 0.3
sc_alpha                 = 1.0
couple_intramol          = no
couple_lambda1           = vdwq
couple_lambda0           = none
init_lambda_state        = LAMBDA
vdw_lambdas              = 0.00 0.10 0.20 0.30 0.40 0.50 0.55 0.60 0.65 0.70 0.75 0.80 0.85 0.90 0.95 1.00 1.00 1.00 1.00 1.00 1.00 1.00 1.00 1.00
coul_lambdas             = 0.00 0.00 0.00 0.00 0.00 0.00 0.00 0.00 0.00 0.00 0.00 0.00 0.00 0.00 0.00 0.00 0.20 0.40 0.50 0.60 0.70 0.80 0.90 1.00
nstdhdl                  = 50

