
;
; GENERATED BY LigParGen Server
; Jorgensen Lab @ Yale University 
;
;[ atomtypes ]
;  opls_804  C804    12.0110     0.000    A    3.55000E-01   2.92880E-01
;  opls_813  H813     1.0080     0.000    A    2.42000E-01   1.25520E-01
;  opls_807  C807    12.0110     0.000    A    3.55000E-01   2.92880E-01
;  opls_803  C803    12.0110     0.000    A    3.55000E-01   2.92880E-01
;  opls_808  O808    15.9990     0.000    A    3.12000E-01   7.11280E-01
;  opls_811  H811     1.0080     0.000    A    2.42000E-01   1.25520E-01
;  opls_805  C805    12.0110     0.000    A    3.55000E-01   2.92880E-01
;  opls_802  C802    12.0110     0.000    A    3.55000E-01   2.92880E-01
;  opls_800  O800    15.9990     0.000    A    3.12000E-01   7.11280E-01
;  opls_809  O809    15.9990     0.000    A    2.96000E-01   8.78640E-01
;  opls_806  C806    12.0110     0.000    A    3.55000E-01   2.92880E-01
;  opls_812  H812     1.0080     0.000    A    2.42000E-01   1.25520E-01
;  opls_810  H810     1.0080     0.000    A    0.00000E+00   0.00000E+00
;  opls_801  C801    12.0110     0.000    A    3.55000E-01   2.92880E-01
;  opls_814  H814     1.0080     0.000    A    2.42000E-01   1.25520E-01
;  opls_815  H815     1.0080     0.000    A    0.00000E+00   0.00000E+00
[ moleculetype ]
; Name               nrexcl
MOL                   3
[ atoms ]
;   nr       type  resnr residue  atom   cgnr     charge       mass  
     1   opls_800      1    MOL   O00      1    -0.585    15.9990 
     2   opls_801      1    MOL   C01      1     0.15    12.0110 
     3   opls_802      1    MOL   C02      1    -0.115    12.0110 
     4   opls_803      1    MOL   C03      1    -0.115    12.0110 
     5   opls_804      1    MOL   C04      1    -0.115    12.0110 
     6   opls_805      1    MOL   C05      1    -0.115    12.0110 
     7   opls_806      1    MOL   C06      1     0    12.0110 
     8   opls_807      1    MOL   C07      1     0.52    12.0110 
     9   opls_808      1    MOL   O08      1    -0.53    15.9990 
    10   opls_809      1    MOL   O09      1    -0.44    15.9990 
    11   opls_810      1    MOL   H0A      1     0.435     1.0080 
    12   opls_811      1    MOL   H0B      1     0.115     1.0080 
    13   opls_812      1    MOL   H0C      1     0.115     1.0080 
    14   opls_813      1    MOL   H0D      1     0.115     1.0080 
    15   opls_814      1    MOL   H0E      1     0.115     1.0080 
    16   opls_815      1    MOL   H0F      1     0.45     1.0080 
[ bonds ]
    2     1     1      0.1364 376560.000
    3     2     1      0.1400 392459.200
    4     3     1      0.1400 392459.200
    5     4     1      0.1400 392459.200
    6     5     1      0.1400 392459.200
    7     2     1      0.1400 392459.200
    8     7     1      0.1490 334720.000
    9     8     1      0.1364 376560.000
   10     8     1      0.1229 476976.000
   11     1     1      0.0945 462750.400
   12     3     1      0.1080 307105.600
   13     4     1      0.1080 307105.600
   14     5     1      0.1080 307105.600
   15     6     1      0.1080 307105.600
   16     9     1      0.0945 462750.400
    7     6     1      0.1400 392459.200

[ angles ]
;  ai    aj    ak funct            c0            c1            c2            c3 
    1     2     3     1    120.000    585.760
    2     3     4     1    120.000    527.184
    3     4     5     1    120.000    527.184
    4     5     6     1    120.000    527.184
    1     2     7     1    120.000    585.760
    2     7     8     1    120.000    711.280
    7     8     9     1    120.000    585.760
    7     8    10     1    120.400    669.440
    2     1    11     1    113.000    292.880
    2     3    12     1    120.000    292.880
    3     4    13     1    120.000    292.880
    4     5    14     1    120.000    292.880
    5     6    15     1    120.000    292.880
    8     9    16     1    113.000    292.880
    6     5    14     1    120.000    292.880
    2     7     6     1    120.000    527.184
    5     6     7     1    120.000    527.184
    5     4    13     1    120.000    292.880
    6     7     8     1    120.000    711.280
    7     6    15     1    120.000    292.880
    4     3    12     1    120.000    292.880
    3     2     7     1    120.000    527.184
    9     8    10     1    121.000    669.440

[ dihedrals ]
; IMPROPER DIHEDRAL ANGLES 
;  ai    aj    ak    al funct            c0            c1            c2            c3            c4            c5
     8     7     2     6    4        180.000     10.460     2  
     7     2     1     3    4        180.000     10.460     2  
    14     5     4     6    4        180.000     10.460     2  
    13     4     3     5    4        180.000     10.460     2  
    12     3     2     4    4        180.000     10.460     2  
    15     6     5     7    4        180.000     10.460     2  
    10     8     7     9    4        180.000     43.932     2  

[ dihedrals ]
; PROPER DIHEDRAL ANGLES
;  ai    aj    ak    al funct            c0            c1            c2            c3            c4            c5
    8    7    2    3        3      30.334   0.000  -30.334  -0.000  -0.000   0.000
    8    7    6    5        3      30.334   0.000  -30.334  -0.000  -0.000   0.000
    8    7    2    1        3      30.334   0.000  -30.334  -0.000  -0.000   0.000
    7    6    5    4        3      30.334   0.000  -30.334  -0.000  -0.000   0.000
    5    4    3    2        3      30.334   0.000  -30.334  -0.000  -0.000   0.000
    6    5    4    3        3      30.334   0.000  -30.334  -0.000  -0.000   0.000
    7    2    3    4        3      30.334   0.000  -30.334  -0.000  -0.000   0.000
    5    6    7    2        3      30.334   0.000  -30.334  -0.000  -0.000   0.000
    6    7    2    3        3      30.334   0.000  -30.334  -0.000  -0.000   0.000
    6    7    2    1        3      30.334   0.000  -30.334  -0.000  -0.000   0.000
    4    3    2    1        3      30.334   0.000  -30.334  -0.000  -0.000   0.000
   15    6    7    8        3      30.334   0.000  -30.334  -0.000  -0.000   0.000
   14    5    4    3        3      30.334   0.000  -30.334  -0.000  -0.000   0.000
   12    3    2    7        3      30.334   0.000  -30.334  -0.000  -0.000   0.000
   15    6    7    2        3      30.334   0.000  -30.334  -0.000  -0.000   0.000
   13    4    3    2        3      30.334   0.000  -30.334  -0.000  -0.000   0.000
   13    4    5    6        3      30.334   0.000  -30.334  -0.000  -0.000   0.000
   14    5    6    7        3      30.334   0.000  -30.334  -0.000  -0.000   0.000
   12    3    4    5        3      30.334   0.000  -30.334  -0.000  -0.000   0.000
   15    6    5    4        3      30.334   0.000  -30.334  -0.000  -0.000   0.000
   15    6    5   14        3      30.334   0.000  -30.334  -0.000  -0.000   0.000
   13    4    3   12        3      30.334   0.000  -30.334  -0.000  -0.000   0.000
   14    5    4   13        3      30.334   0.000  -30.334  -0.000  -0.000   0.000
   12    3    2    1        3      30.334   0.000  -30.334  -0.000  -0.000   0.000
   16    9    8    7        3      29.288  -8.368  -20.920  -0.000  -0.000   0.000
   16    9    8   10        3      23.012   0.000  -23.012  -0.000  -0.000   0.000
   11    1    2    7        3       7.037   0.000  -7.037  -0.000  -0.000   0.000
   11    1    2    3        3       7.037   0.000  -7.037  -0.000  -0.000   0.000
   10    8    7    2        3       8.786   0.000  -8.786  -0.000  -0.000   0.000
   10    8    7    6        3       8.786   0.000  -8.786  -0.000  -0.000   0.000
    9    8    7    6        3       8.786   0.000  -8.786  -0.000  -0.000   0.000
    9    8    7    2        3       8.786   0.000  -8.786  -0.000  -0.000   0.000

[ dihedral_restraints ]
16 9 8 10 1 115 0 200


[ pairs ]
     1     4    1
     2     5    1
     1     6    1
     3     6    1
     1     8    1
     4     7    1
     3     8    1
     2     9    1
     2    10    1
     5     8    1
     1    12    1
     3    11    1
     6     9    1
     2    13    1
     6    10    1
     5    12    1
     3    14    1
     2    15    1
     7    11    1
     7    12    1
     6    13    1
     4    15    1
     7    14    1
     8    15    1
     7    16    1
    12    13    1
    10    16    1
    13    14    1
    14    15    1

