; soln.top
[ defaults ]
; nbfunc comb-rule gen-pairs fudgeLJ fudgeQQ
1 2 yes 0.5 0.8333

[ atomtypes ]
;name bond_type mass charge ptype sigma epsilon Amb
  opls_817  H817     1.0080     0.000    A    0.00000E+00   0.00000E+00
  opls_804  C804    12.0110     0.000    A    3.55000E-01   2.92880E-01
  opls_813  H813     1.0080     0.000    A    2.42000E-01   1.25520E-01
  opls_807  C807    12.0110     0.000    A    3.55000E-01   2.92880E-01
  opls_803  C803    12.0110     0.000    A    3.55000E-01   2.92880E-01
  opls_806  C806    12.0110     0.000    A    3.50000E-01   2.76144E-01
  opls_811  H811     1.0080     0.000    A    2.42000E-01   1.25520E-01
  opls_814  H814     1.0080     0.000    A    2.50000E-01   1.25520E-01
  opls_810  H810     1.0080     0.000    A    2.42000E-01   1.25520E-01
  opls_805  C805    12.0110     0.000    A    3.55000E-01   2.92880E-01
  opls_802  C802    12.0110     0.000    A    3.55000E-01   2.92880E-01
  opls_808  O808    15.9990     0.000    A    3.12000E-01   7.11280E-01
  opls_809  O809    15.9990     0.000    A    2.96000E-01   8.78640E-01
  opls_812  H812     1.0080     0.000    A    2.42000E-01   1.25520E-01
  opls_800  C800    12.0110     0.000    A    3.55000E-01   2.92880E-01
  opls_801  C801    12.0110     0.000    A    3.55000E-01   2.92880E-01
  opls_816  H816     1.0080     0.000    A    2.50000E-01   1.25520E-01
  opls_815  H815     1.0080     0.000    A    2.50000E-01   1.25520E-01


#include "solu.itp"



[ system ]
MOL in water

[ molecules ]
; Compound nmols
MOL 1

