
;
; GENERATED BY LigParGen Server
; Jorgensen Lab @ Yale University 
;
;[ atomtypes ]
;  opls_810  H810     1.0080     0.000    A    2.50000E-01   1.25520E-01
;  opls_802  C802    12.0110     0.000    A    3.50000E-01   2.76144E-01
;  opls_801  C801    12.0110     0.000    A    3.50000E-01   2.76144E-01
;  opls_803  C803    12.0110     0.000    A    3.55000E-01   2.92880E-01
;  opls_809  H809     1.0080     0.000    A    2.50000E-01   1.25520E-01
;  opls_806  H806     1.0080     0.000    A    2.50000E-01   1.25520E-01
;  opls_805  O805    15.9990     0.000    A    2.96000E-01   8.78640E-01
;  opls_812  H812     1.0080     0.000    A    2.50000E-01   1.25520E-01
;  opls_807  H807     1.0080     0.000    A    2.50000E-01   1.25520E-01
;  opls_813  H813     1.0080     0.000    A    0.00000E+00   0.00000E+00
;  opls_808  H808     1.0080     0.000    A    2.50000E-01   1.25520E-01
;  opls_804  O804    15.9990     0.000    A    3.12000E-01   7.11280E-01
;  opls_800  C800    12.0110     0.000    A    3.50000E-01   2.76144E-01
;  opls_811  H811     1.0080     0.000    A    2.50000E-01   1.25520E-01
[ moleculetype ]
; Name               nrexcl
MOL                   3
[ atoms ]
;   nr       type  resnr residue  atom   cgnr     charge       mass  
     1   opls_800      1    MOL   C00      1    -0.18    12.0110 
     2   opls_801      1    MOL   C01      1    -0.12    12.0110 
     3   opls_802      1    MOL   C02      1    -0.12    12.0110 
     4   opls_803      1    MOL   C03      1     0.52    12.0110 
     5   opls_804      1    MOL   O04      1    -0.53    15.9990 
     6   opls_805      1    MOL   O05      1    -0.44    15.9990 
     7   opls_806      1    MOL   H06      1     0.06     1.0080 
     8   opls_807      1    MOL   H07      1     0.06     1.0080 
     9   opls_808      1    MOL   H08      1     0.06     1.0080 
    10   opls_809      1    MOL   H09      1     0.06     1.0080 
    11   opls_810      1    MOL   H0A      1     0.06     1.0080 
    12   opls_811      1    MOL   H0B      1     0.06     1.0080 
    13   opls_812      1    MOL   H0C      1     0.06     1.0080 
    14   opls_813      1    MOL   H0D      1     0.45     1.0080 
[ bonds ]
    2     1     1      0.1529 224262.400
    3     2     1      0.1529 224262.400
    4     3     1      0.1522 265265.600
    5     4     1      0.1364 376560.000
    6     4     1      0.1229 476976.000
    7     1     1      0.1090 284512.000
    8     1     1      0.1090 284512.000
    9     1     1      0.1090 284512.000
   10     2     1      0.1090 284512.000
   11     2     1      0.1090 284512.000
   12     3     1      0.1090 284512.000
   13     3     1      0.1090 284512.000
   14     5     1      0.0945 462750.400

[ angles ]
;  ai    aj    ak funct            c0            c1            c2            c3 
    1     2     3     1    112.700    488.273
    2     3     4     1    111.100    527.184
    3     4     5     1    108.000    585.760
    3     4     6     1    120.400    669.440
    2     1     7     1    110.700    313.800
    2     1     8     1    110.700    313.800
    2     1     9     1    110.700    313.800
    1     2    10     1    110.700    313.800
    1     2    11     1    110.700    313.800
    2     3    12     1    110.700    313.800
    2     3    13     1    110.700    313.800
    4     5    14     1    113.000    292.880
    5     4     6     1    121.000    669.440
    8     1     9     1    107.800    276.144
    3     2    11     1    110.700    313.800
   10     2    11     1    107.800    276.144
    7     1     9     1    107.800    276.144
   12     3    13     1    107.800    276.144
    4     3    12     1    109.500    292.880
    7     1     8     1    107.800    276.144
    4     3    13     1    109.500    292.880
    3     2    10     1    110.700    313.800

[ dihedrals ]
; IMPROPER DIHEDRAL ANGLES 
;  ai    aj    ak    al funct            c0            c1            c2            c3            c4            c5
     6     4     3     5    4        180.000     43.932     2  

[ dihedrals ]
; PROPER DIHEDRAL ANGLES
;  ai    aj    ak    al funct            c0            c1            c2            c3            c4            c5
    4    3    2    1        3      -4.960   6.286   1.310  -2.636  -0.000   0.000
   12    3    4    6        3       0.000   0.000   0.000  -0.000  -0.000   0.000
   13    3    4    6        3       0.000   0.000   0.000  -0.000  -0.000   0.000
   12    3    4    5        3       0.000   0.000   0.000  -0.000  -0.000   0.000
   13    3    4    5        3       0.000   0.000   0.000  -0.000  -0.000   0.000
   10    2    3    4        3      -0.209  -0.628   0.000   0.837  -0.000   0.000
   11    2    3    4        3      -0.209  -0.628   0.000   0.837  -0.000   0.000
   13    3    2    1        3       0.628   1.883   0.000  -2.510  -0.000   0.000
    8    1    2    3        3       0.628   1.883   0.000  -2.510  -0.000   0.000
    9    1    2    3        3       0.628   1.883   0.000  -2.510  -0.000   0.000
   12    3    2    1        3       0.628   1.883   0.000  -2.510  -0.000   0.000
    7    1    2    3        3       0.628   1.883   0.000  -2.510  -0.000   0.000
   12    3    2   10        3       0.628   1.883   0.000  -2.510  -0.000   0.000
   10    2    1    8        3       0.628   1.883   0.000  -2.510  -0.000   0.000
   11    2    1    7        3       0.628   1.883   0.000  -2.510  -0.000   0.000
   12    3    2   11        3       0.628   1.883   0.000  -2.510  -0.000   0.000
   11    2    1    8        3       0.628   1.883   0.000  -2.510  -0.000   0.000
   10    2    1    9        3       0.628   1.883   0.000  -2.510  -0.000   0.000
   10    2    1    7        3       0.628   1.883   0.000  -2.510  -0.000   0.000
   13    3    2   11        3       0.628   1.883   0.000  -2.510  -0.000   0.000
   11    2    1    9        3       0.628   1.883   0.000  -2.510  -0.000   0.000
   13    3    2   10        3       0.628   1.883   0.000  -2.510  -0.000   0.000
   14    5    4    3        3      26.150  -3.138  -23.012  -0.000  -0.000   0.000
   14    5    4    6        3      23.012   0.000  -23.012  -0.000  -0.000   0.000
    6    4    3    2        3       0.000   0.000   0.000  -0.000  -0.000   0.000
    5    4    3    2        3       5.318   0.732  -2.284  -3.766  -0.000   0.000

[ dihedral_restraints ]
14 5 4 6 1 -95 0 200

[ pairs ]
     1     4    1
     2     5    1
     2     6    1
     3     7    1
     3     8    1
     3     9    1
     1    12    1
     4    10    1
     1    13    1
     4    11    1
     7    10    1
     5    12    1
     3    14    1
     8    10    1
     7    11    1
     6    12    1
     5    13    1
     9    10    1
     8    11    1
     6    13    1
     9    11    1
     6    14    1
    10    12    1
    11    12    1
    10    13    1
    11    13    1

